ITEM: TIMESTEP
0
ITEM: NUMBER OF ATOMS
256
ITEM: BOX BOUNDS pp pp pp
-2.7734450974025386e+00 2.7734450974025386e+00
-2.7734450974025386e+00 2.7734450974025386e+00
-2.7734450974025386e+00 2.7734450974025386e+00
ITEM: ATOMS id type x y z
1 1 -2.77345 -2.77345 -2.77345
2 1 -2.08008 -2.08008 -2.77345
3 1 -2.08008 -2.77345 -2.08008
4 1 -2.77345 -2.08008 -2.08008
5 1 -1.38672 -2.77345 -2.77345
6 1 -0.693361 -2.08008 -2.77345
7 1 -0.693361 -2.77345 -2.08008
8 1 -1.38672 -2.08008 -2.08008
9 1 0 -2.77345 -2.77345
10 1 0.693361 -2.08008 -2.77345
11 1 0.693361 -2.77345 -2.08008
12 1 0 -2.08008 -2.08008
13 1 1.38672 -2.77345 -2.77345
14 1 2.08008 -2.08008 -2.77345
15 1 2.08008 -2.77345 -2.08008
16 1 1.38672 -2.08008 -2.08008
17 1 -2.77345 -1.38672 -2.77345
18 1 -2.08008 -0.693361 -2.77345
19 1 -2.08008 -1.38672 -2.08008
20 1 -2.77345 -0.693361 -2.08008
21 1 -1.38672 -1.38672 -2.77345
22 1 -0.693361 -0.693361 -2.77345
23 1 -0.693361 -1.38672 -2.08008
24 1 -1.38672 -0.693361 -2.08008
25 1 0 -1.38672 -2.77345
26 1 0.693361 -0.693361 -2.77345
27 1 0.693361 -1.38672 -2.08008
28 1 0 -0.693361 -2.08008
29 1 1.38672 -1.38672 -2.77345
30 1 2.08008 -0.693361 -2.77345
31 1 2.08008 -1.38672 -2.08008
32 1 1.38672 -0.693361 -2.08008
33 1 -2.77345 0 -2.77345
34 1 -2.08008 0.693361 -2.77345
35 1 -2.08008 0 -2.08008
36 1 -2.77345 0.693361 -2.08008
37 1 -1.38672 0 -2.77345
38 1 -0.693361 0.693361 -2.77345
39 1 -0.693361 0 -2.08008
40 1 -1.38672 0.693361 -2.08008
41 1 0 0 -2.77345
42 1 0.693361 0.693361 -2.77345
43 1 0.693361 0 -2.08008
44 1 0 0.693361 -2.08008
45 1 1.38672 0 -2.77345
46 1 2.08008 0.693361 -2.77345
47 1 2.08008 0 -2.08008
48 1 1.38672 0.693361 -2.08008
49 1 -2.77345 1.38672 -2.77345
50 1 -2.08008 2.08008 -2.77345
51 1 -2.08008 1.38672 -2.08008
52 1 -2.77345 2.08008 -2.08008
53 1 -1.38672 1.38672 -2.77345
54 1 -0.693361 2.08008 -2.77345
55 1 -0.693361 1.38672 -2.08008
56 1 -1.38672 2.08008 -2.08008
57 1 0 1.38672 -2.77345
58 1 0.693361 2.08008 -2.77345
59 1 0.693361 1.38672 -2.08008
60 1 0 2.08008 -2.08008
61 1 1.38672 1.38672 -2.77345
62 1 2.08008 2.08008 -2.77345
63 1 2.08008 1.38672 -2.08008
64 1 1.38672 2.08008 -2.08008
65 1 -2.77345 -2.77345 -1.38672
66 1 -2.08008 -2.08008 -1.38672
67 1 -2.08008 -2.77345 -0.693361
68 1 -2.77345 -2.08008 -0.693361
69 1 -1.38672 -2.77345 -1.38672
70 1 -0.693361 -2.08008 -1.38672
71 1 -0.693361 -2.77345 -0.693361
72 1 -1.38672 -2.08008 -0.693361
73 1 0 -2.77345 -1.38672
74 1 0.693361 -2.08008 -1.38672
75 1 0.693361 -2.77345 -0.693361
76 1 0 -2.08008 -0.693361
77 1 1.38672 -2.77345 -1.38672
78 1 2.08008 -2.08008 -1.38672
79 1 2.08008 -2.77345 -0.693361
80 1 1.38672 -2.08008 -0.693361
81 1 -2.77345 -1.38672 -1.38672
82 1 -2.08008 -0.693361 -1.38672
83 1 -2.08008 -1.38672 -0.693361
84 1 -2.77345 -0.693361 -0.693361
85 1 -1.38672 -1.38672 -1.38672
86 1 -0.693361 -0.693361 -1.38672
87 1 -0.693361 -1.38672 -0.693361
88 1 -1.38672 -0.693361 -0.693361
89 1 0 -1.38672 -1.38672
90 1 0.693361 -0.693361 -1.38672
91 1 0.693361 -1.38672 -0.693361
92 1 0 -0.693361 -0.693361
93 1 1.38672 -1.38672 -1.38672
94 1 2.08008 -0.693361 -1.38672
95 1 2.08008 -1.38672 -0.693361
96 1 1.38672 -0.693361 -0.693361
97 1 -2.77345 0 -1.38672
98 1 -2.08008 0.693361 -1.38672
99 1 -2.08008 0 -0.693361
100 1 -2.77345 0.693361 -0.693361
101 1 -1.38672 0 -1.38672
102 1 -0.693361 0.693361 -1.38672
103 1 -0.693361 0 -0.693361
104 1 -1.38672 0.693361 -0.693361
105 1 0 0 -1.38672
106 1 0.693361 0.693361 -1.38672
107 1 0.693361 0 -0.693361
108 1 0 0.693361 -0.693361
109 1 1.38672 0 -1.38672
110 1 2.08008 0.693361 -1.38672
111 1 2.08008 0 -0.693361
112 1 1.38672 0.693361 -0.693361
113 1 -2.77345 1.38672 -1.38672
114 1 -2.08008 2.08008 -1.38672
115 1 -2.08008 1.38672 -0.693361
116 1 -2.77345 2.08008 -0.693361
117 1 -1.38672 1.38672 -1.38672
118 1 -0.693361 2.08008 -1.38672
119 1 -0.693361 1.38672 -0.693361
120 1 -1.38672 2.08008 -0.693361
121 1 0 1.38672 -1.38672
122 1 0.693361 2.08008 -1.38672
123 1 0.693361 1.38672 -0.693361
124 1 0 2.08008 -0.693361
125 1 1.38672 1.38672 -1.38672
126 1 2.08008 2.08008 -1.38672
127 1 2.08008 1.38672 -0.693361
128 1 1.38672 2.08008 -0.693361
129 1 -2.77345 -2.77345 0
130 1 -2.08008 -2.08008 0
131 1 -2.08008 -2.77345 0.693361
132 1 -2.77345 -2.08008 0.693361
133 1 -1.38672 -2.77345 0
134 1 -0.693361 -2.08008 0
135 1 -0.693361 -2.77345 0.693361
136 1 -1.38672 -2.08008 0.693361
137 1 0 -2.77345 0
138 1 0.693361 -2.08008 0
139 1 0.693361 -2.77345 0.693361
140 1 0 -2.08008 0.693361
141 1 1.38672 -2.77345 0
142 1 2.08008 -2.08008 0
143 1 2.08008 -2.77345 0.693361
144 1 1.38672 -2.08008 0.693361
145 1 -2.77345 -1.38672 0
146 1 -2.08008 -0.693361 0
147 1 -2.08008 -1.38672 0.693361
148 1 -2.77345 -0.693361 0.693361
149 1 -1.38672 -1.38672 0
150 1 -0.693361 -0.693361 0
151 1 -0.693361 -1.38672 0.693361
152 1 -1.38672 -0.693361 0.693361
153 1 0 -1.38672 0
154 1 0.693361 -0.693361 0
155 1 0.693361 -1.38672 0.693361
156 1 0 -0.693361 0.693361
157 1 1.38672 -1.38672 0
158 1 2.08008 -0.693361 0
159 1 2.08008 -1.38672 0.693361
160 1 1.38672 -0.693361 0.693361
161 1 -2.77345 0 0
162 1 -2.08008 0.693361 0
163 1 -2.08008 0 0.693361
164 1 -2.77345 0.693361 0.693361
165 1 -1.38672 0 0
166 1 -0.693361 0.693361 0
167 1 -0.693361 0 0.693361
168 1 -1.38672 0.693361 0.693361
169 1 0 0 0
170 1 0.693361 0.693361 0
171 1 0.693361 0 0.693361
172 1 0 0.693361 0.693361
173 1 1.38672 0 0
174 1 2.08008 0.693361 0
175 1 2.08008 0 0.693361
176 1 1.38672 0.693361 0.693361
177 1 -2.77345 1.38672 0
178 1 -2.08008 2.08008 0
179 1 -2.08008 1.38672 0.693361
180 1 -2.77345 2.08008 0.693361
181 1 -1.38672 1.38672 0
182 1 -0.693361 2.08008 0
183 1 -0.693361 1.38672 0.693361
184 1 -1.38672 2.08008 0.693361
185 1 0 1.38672 0
186 1 0.693361 2.08008 0
187 1 0.693361 1.38672 0.693361
188 1 0 2.08008 0.693361
189 1 1.38672 1.38672 0
190 1 2.08008 2.08008 0
191 1 2.08008 1.38672 0.693361
192 1 1.38672 2.08008 0.693361
193 1 -2.77345 -2.77345 1.38672
194 1 -2.08008 -2.08008 1.38672
195 1 -2.08008 -2.77345 2.08008
196 1 -2.77345 -2.08008 2.08008
197 1 -1.38672 -2.77345 1.38672
198 1 -0.693361 -2.08008 1.38672
199 1 -0.693361 -2.77345 2.08008
200 1 -1.38672 -2.08008 2.08008
201 1 0 -2.77345 1.38672
202 1 0.693361 -2.08008 1.38672
203 1 0.693361 -2.77345 2.08008
204 1 0 -2.08008 2.08008
205 1 1.38672 -2.77345 1.38672
206 1 2.08008 -2.08008 1.38672
207 1 2.08008 -2.77345 2.08008
208 1 1.38672 -2.08008 2.08008
209 1 -2.77345 -1.38672 1.38672
210 1 -2.08008 -0.693361 1.38672
211 1 -2.08008 -1.38672 2.08008
212 1 -2.77345 -0.693361 2.08008
213 1 -1.38672 -1.38672 1.38672
214 1 -0.693361 -0.693361 1.38672
215 1 -0.693361 -1.38672 2.08008
216 1 -1.38672 -0.693361 2.08008
217 1 0 -1.38672 1.38672
218 1 0.693361 -0.693361 1.38672
219 1 0.693361 -1.38672 2.08008
220 1 0 -0.693361 2.08008
221 1 1.38672 -1.38672 1.38672
222 1 2.08008 -0.693361 1.38672
223 1 2.08008 -1.38672 2.08008
224 1 1.38672 -0.693361 2.08008
225 1 -2.77345 0 1.38672
226 1 -2.08008 0.693361 1.38672
227 1 -2.08008 0 2.08008
228 1 -2.77345 0.693361 2.08008
229 1 -1.38672 0 1.38672
230 1 -0.693361 0.693361 1.38672
231 1 -0.693361 0 2.08008
232 1 -1.38672 0.693361 2.08008
233 1 0 0 1.38672
234 1 0.693361 0.693361 1.38672
235 1 0.693361 0 2.08008
236 1 0 0.693361 2.08008
237 1 1.38672 0 1.38672
238 1 2.08008 0.693361 1.38672
239 1 2.08008 0 2.08008
240 1 1.38672 0.693361 2.08008
241 1 -2.77345 1.38672 1.38672
242 1 -2.08008 2.08008 1.38672
243 1 -2.08008 1.38672 2.08008
244 1 -2.77345 2.08008 2.08008
245 1 -1.38672 1.38672 1.38672
246 1 -0.693361 2.08008 1.38672
247 1 -0.693361 1.38672 2.08008
248 1 -1.38672 2.08008 2.08008
249 1 0 1.38672 1.38672
250 1 0.693361 2.08008 1.38672
251 1 0.693361 1.38672 2.08008
252 1 0 2.08008 2.08008
253 1 1.38672 1.38672 1.38672
254 1 2.08008 2.08008 1.38672
255 1 2.08008 1.38672 2.08008
256 1 1.38672 2.08008 2.08008
