ITEM: TIMESTEP
0
ITEM: NUMBER OF ATOMS
200
ITEM: BOX BOUNDS pp pp pp
-2.9469720263107493e+00 2.9469720263107493e+00
-2.9469720263107493e+00 2.9469720263107493e+00
-2.9469720263107493e+00 2.9469720263107493e+00
ITEM: ATOMS id type x y z
1 1 1.01298 2.18446 2.93941
2 1 1.41064 0.18713 -0.252974
3 1 1.55897 -1.20151 -1.79993
4 1 0.405668 1.87587 -0.21666
5 1 2.61468 0.566827 0.15943
6 1 1.55422 0.811943 2.51653
7 1 -0.179853 2.64007 -0.610755
8 1 0.0618741 1.68962 -1.18457
9 1 -0.690677 0.0971964 -1.82996
10 1 0.763018 -2.73296 -2.40162
11 1 1.60287 0.690855 -1.38013
12 1 1.8895 2.48425 1.02787
13 1 -1.39945 0.801718 -2.36531
14 1 2.27912 0.242926 -2.90722
15 1 1.7383 0.0226197 1.81135
16 1 -1.77886 0.685594 2.45585
17 1 2.5173 1.29851 2.67527
18 1 0.11179 0.622477 2.12328
19 1 -1.09455 1.50869 -1.51005
20 1 -0.953061 -1.81845 -2.34355
21 1 -0.25479 -1.88004 0.913193
22 1 -0.514321 2.77524 -2.68349
23 1 0.00693413 -1.33201 1.81035
24 1 1.73253 2.93878 -0.970635
25 1 -1.03599 -0.103537 -2.87985
26 1 2.21058 1.51843 0.589053
27 1 2.70913 -0.997167 -1.3574
28 1 -2.80565 -1.41713 2.85449
29 1 0.465301 -0.330612 1.58925
30 1 -2.50533 2.88895 -2.31675
31 1 2.46726 -0.649968 2.39988
32 1 0.766976 -0.502171 -2.25112
33 1 2.85615 0.29204 2.1684
34 1 0.342679 1.34283 1.0314
35 1 2.55028 -1.74203 -0.223982
36 1 -0.337902 2.07218 0.531009
37 1 -0.17764 1.84031 2.60785
38 1 -2.53181 1.20957 2.0407
39 1 0.0987185 -0.575178 -1.38799
40 1 2.0864 -1.9355 -1.24197
41 1 1.44357 2.42961 -1.85766
42 1 -1.10171 0.690383 -0.207568
43 1 1.07891 1.21955 0.335776
44 1 1.31233 1.95819 -0.876566
45 1 2.21695 -1.08157 1.42299
46 1 -0.684412 2.39119 -1.71548
47 1 -1.3728 -2.79007 -2.12277
48 1 1.75955 -0.66796 -2.74267
49 1 2.86232 2.51439 0.456628
50 1 -2.65876 -2.38594 0.277999
51 1 -1.32476 -1.33155 -0.639913
52 1 -0.662434 1.67275 -0.475777
53 1 -1.02761 -1.17762 0.330512
54 1 0.509272 1.04869 -2.82924
55 1 2.35397 -2.93632 1.94282
56 1 -1.52666 -0.669776 2.0184
57 1 -1.00595 1.83807 -2.56593
58 1 1.78765 0.558688 0.747744
59 1 2.49908 2.20945 -0.510727
60 1 -2.7915 -0.0314775 -1.49628
61 1 -2.77966 2.34771 2.70817
62 1 -1.92708 -1.60216 2.26088
63 1 -0.743169 -1.40916 2.56605
64 1 -2.24656 1.04078 -1.76865
65 1 2.29693 0.0935569 -0.813075
66 1 0.00156277 0.0864832 -2.62792
67 1 -1.99278 -2.04186 -2.61668
68 1 -2.04096 2.35179 1.93651
69 1 -1.10091 -1.52336 1.5405
70 1 -1.4911 -2.53221 1.64812
71 1 -0.552223 1.30736 1.70104
72 1 2.59796 -0.0809462 1.19425
73 1 2.86216 -1.43583 0.720818
74 1 2.14892 2.34445 -2.70742
75 1 -1.56637 -1.0062 -2.8085
76 1 0.0037131 0.926916 0.0720447
77 1 -2.28673 -1.25019 -1.96442
78 1 2.02414 -0.189365 -1.81283
79 1 -0.918839 2.64357 2.18059
80 1 0.501308 -1.05366 2.77854
81 1 0.810222 -0.0981511 2.59558
82 1 -0.306771 1.08388 -2.0829
83 1 -0.482553 -1.60847 -1.33876
84 1 1.95451 1.25328 -0.443299
85 1 -2.09285 -1.34536 0.185569
86 1 -0.910796 1.14619 0.68089
87 1 -2.65024 2.00271 -1.19661
88 1 -1.38464 2.29432 -0.861048
89 1 1.81491 1.90124 2.25292
90 1 -1.30415 2.08705 1.18403
91 1 1.5395 -2.68094 2.58316
92 1 -2.11766 -2.94164 -1.31803
93 1 2.90591 -2.67651 -0.770584
94 1 -2.05399 -0.633091 -1.02682
95 1 0.767603 -1.32704 -1.03202
96 1 1.12095 -0.286288 -1.27885
97 1 2.63466 -2.32505 -2.88247
98 1 -2.21826 -1.84917 1.2149
99 1 -1.64173 -0.421193 -0.116638
100 1 -2.31416 2.45875 -0.291955
101 1 -1.62912 -1.94632 -1.40053
102 1 0.346624 -2.58588 1.41558
103 1 2.90167 0.971107 -0.956681
104 1 -2.58556 0.568026 -2.65487
105 1 -1.9185 -0.262846 -2.14135
106 1 1.12559 2.62566 1.77778
107 1 0.827964 -2.89389 -0.350844
108 1 2.01702 -1.54987 2.52811
109 1 -1.25458 1.61719 2.38836
110 1 -0.254685 0.415029 1.08701
111 1 -0.607289 -2.90613 1.13613
112 1 -0.0726305 -2.36946 -1.88796
113 1 1.18263 -1.76891 -2.57507
114 1 0.737085 -2.01379 2.32169
115 1 1.84645 -0.895889 -0.716566
116 1 -2.18664 0.0558399 1.55805
117 1 1.70098 -1.43064 0.517204
118 1 -1.69847 1.00707 1.38372
119 1 1.85716 1.33284 -2.47292
120 1 0.452373 0.450228 -1.66825
121 1 0.969708 0.682884 1.53535
122 1 -0.197584 -1.09366 -0.370426
123 1 -0.941059 0.273923 1.93609
124 1 -1.2108 -0.894544 -1.72327
125 1 -2.77279 1.45445 -0.0843962
126 1 -0.0930334 -2.13284 -2.91181
127 1 -0.978134 2.8083 0.0366116
128 1 0.870832 -0.764699 0.00340827
129 1 -0.588183 0.826374 2.74702
130 1 2.85969 -0.56386 -2.43121
131 1 0.545124 2.73476 -1.2957
132 1 -0.870197 -0.388259 -0.805668
133 1 -0.389423 -0.893411 -2.38853
134 1 -2.57844 -0.861631 1.74176
135 1 2.05898 -2.74624 0.0237358
136 1 1.31661 -0.937647 2.13124
137 1 -2.82814 -2.19256 -1.74399
138 1 -2.13563 1.52013 -2.90807
139 1 -1.74286 2.58113 2.8876
140 1 -1.35818 -2.12708 0.67369
141 1 1.32116 -0.529939 0.926319
142 1 -2.3426 -0.420702 2.68587
143 1 -1.24688 -2.31555 2.67878
144 1 -0.439752 -2.28761 2.02669
145 1 -2.86114 1.84986 -2.19114
146 1 -0.440138 0.716796 -1.01775
147 1 2.41888 -2.32725 1.01439
148 1 0.0896998 -2.75248 0.434034
149 1 0.699439 1.59116 2.05454
150 1 2.79129 2.05539 1.54739
151 1 -2.4168 0.268841 -0.490733
152 1 -2.88516 -0.713396 -0.425006
153 1 2.57601 0.830872 -1.95294
154 1 -1.88643 2.7553 0.603626
155 1 1.61574 -2.0051 1.73351
156 1 0.724869 0.241675 0.58318
157 1 1.3896 1.60872 1.28043
158 1 1.61671 2.20029 0.0364899
159 1 1.45294 -2.01465 -0.371447
160 1 2.20491 1.74096 -1.50611
161 1 0.385133 -1.45795 -1.97917
162 1 -0.339979 -0.208224 0.239012
163 1 0.994029 1.48672 -1.7799
164 1 0.149115 -0.914983 0.727085
165 1 0.846501 -1.56582 1.21564
166 1 -2.30957 1.78184 0.800392
167 1 -1.20725 0.0614972 0.775259
168 1 0.380957 2.84186 2.47027
169 1 -2.55678 -0.165235 0.476079
170 1 -1.98721 0.792882 0.351922
171 1 -0.884666 -2.53627 -1.07517
172 1 0.225116 2.00415 -2.30575
173 1 -1.61099 0.298966 -1.2719
174 1 0.836135 0.925806 -0.740625
175 1 -2.77671 0.841641 1.03091
176 1 -0.287648 -0.467057 2.36445
177 1 1.23832 -2.64313 0.643253
178 1 -2.62024 -2.82917 1.29933
179 1 -2.37397 -2.52995 2.31511
180 1 -0.684321 -0.628767 1.33446
181 1 2.57994 2.6656 -1.60408
182 1 2.93152 -1.83962 1.90545
183 1 -1.8832 2.08986 -2.00688
184 1 0.702181 2.31339 0.720564
185 1 -1.73506 -2.46876 -0.437901
186 1 0.540661 -1.74095 0.179535
187 1 0.375286 0.015244 -0.509478
188 1 1.8796 -2.6238 -2.16066
189 1 -2.4856 -1.66724 -0.867724
190 1 2.2417 0.969386 1.65087
191 1 -1.52604 1.81903 0.122456
192 1 -1.82097 -0.843739 1.01167
193 1 2.18784 -0.475511 0.229238
194 1 1.09019 -2.1512 -1.50203
195 1 1.34966 0.462257 -2.33796
196 1 -1.89303 1.31134 -0.696806
197 1 -0.60693 -1.98483 -0.100112
198 1 0.0383067 2.25856 1.5785
199 1 0.192152 -2.19277 -0.835348
200 1 2.39719 -1.55242 -2.24197
